Variables="x""dx"
Zone t="         0"
i=  65
 -2.000000000000000e+00   2.662719504358602e-01
 -1.733728049564140e+00   2.508963483540092e-01
 -1.482831701210131e+00   2.223488512266776e-01
 -1.260482849983453e+00   1.812869242149768e-01
 -1.079195925768476e+00   1.262657455300628e-01
 -9.529301802384135e-01   5.839574860725538e-02
 -8.945344316311581e-01   5.183012318816160e-02
 -8.427043084429965e-01   4.564135452201346e-02
 -7.970629539209830e-01   4.197088923126358e-02
 -7.550920646897195e-01   3.897156427612614e-02
 -7.161205004135933e-01   3.558281063369417e-02
 -6.805376897798992e-01   3.275834421535384e-02
 -6.477793455645453e-01   3.109542072709182e-02
 -6.166839248374535e-01   3.006096033157280e-02
 -5.866229645058807e-01   2.918675221210110e-02
 -5.574362122937796e-01   2.863305885539080e-02
 -5.288031534383888e-01   2.865006351753696e-02
 -5.001530899208518e-01   2.913428433538656e-02
 -4.710188055854653e-01   2.977120029499081e-02
 -4.412476052904745e-01   3.045852369933544e-02
 -4.107890815911390e-01   3.140668551297732e-02
 -3.793823960781617e-01   3.262297143747650e-02
 -3.467594246406852e-01   3.362026987970046e-02
 -3.131391547609848e-01   3.414099744533683e-02
 -2.789981573156479e-01   3.466485175824463e-02
 -2.443333055574033e-01   3.541828946903403e-02
 -2.089150160883693e-01   3.561921822352610e-02
 -1.732957978648432e-01   3.491709555600697e-02
 -1.383787023088362e-01   3.462798709366910e-02
 -1.037507152151671e-01   3.551809156560637e-02
 -6.823262364956073e-02   3.537874553090459e-02
 -3.285387811865614e-02   3.288413665064893e-02
  3.025853199278838e-05   3.132595736327037e-02
  3.135621589526316e-02   3.297138135784494e-02
  6.432759725310810e-02   3.487267935803362e-02
  9.920027661114172e-02   3.596962127417502e-02
  1.351698978853168e-01   3.635922598161601e-02
  1.715291238669328e-01   3.636358275371521e-02
  2.078927066206480e-01   3.611144612842943e-02
  2.440041527490774e-01   3.555394095547915e-02
  2.795580937045565e-01   3.471650975278751e-02
  3.142746034573440e-01   3.374513101777621e-02
  3.480197344751203e-01   3.267305939804421e-02
  3.806927938731645e-01   3.145679725319350e-02
  4.121495911263580e-01   3.030378374214315e-02
  4.424533748685011e-01   2.951989815185718e-02
  4.719732730203583e-01   2.900766930109100e-02
  5.009809423214493e-01   2.853126612467893e-02
  5.295122084461282e-01   2.841611615615391e-02
  5.579283246022821e-01   2.910072896345206e-02
  5.870290535657342e-01   3.016106313941158e-02
  6.171901167051458e-01   3.106098828768011e-02
  6.482511049928259e-01   3.260438614212180e-02
  6.808554911349477e-01   3.574733068613756e-02
  7.166028218210853e-01   3.935829422343595e-02
  7.559611160445212e-01   4.199583758245540e-02
  7.979569536269766e-01   4.549492145665601e-02
  8.434518750836326e-01   5.211068056115997e-02
  8.955625556447926e-01   5.841376831222767e-02
  9.539763239570203e-01   1.266279569266637e-01
  1.080604280883684e+00   1.806931488165828e-01
  1.261297429700267e+00   2.221972865167674e-01
  1.483494716217034e+00   2.507264611756113e-01
  1.734221177392646e+00   2.657788226073545e-01
  2.000000000000000e+00   0.000000000000000e+00
Zone t="         0"
i=  65
 -2.000000000000000e+00   2.662719504358602e-01
 -1.733728049564140e+00   2.508963483540092e-01
 -1.482831701210131e+00   2.223488512266776e-01
 -1.260482849983453e+00   1.812869242149768e-01
 -1.079195925768476e+00   1.262657455300628e-01
 -9.529301802384135e-01   5.839574860725538e-02
 -8.945344316311581e-01   5.183012318816160e-02
 -8.427043084429965e-01   4.564135452201346e-02
 -7.970629539209830e-01   4.197088923126358e-02
 -7.550920646897195e-01   3.897156427612614e-02
 -7.161205004135933e-01   3.558281063369417e-02
 -6.805376897798992e-01   3.275834421535384e-02
 -6.477793455645453e-01   3.109542072709182e-02
 -6.166839248374535e-01   3.006096033157280e-02
 -5.866229645058807e-01   2.918675221210110e-02
 -5.574362122937796e-01   2.863305885539080e-02
 -5.288031534383888e-01   2.865006351753696e-02
 -5.001530899208518e-01   2.913428433538656e-02
 -4.710188055854653e-01   2.977120029499081e-02
 -4.412476052904745e-01   3.045852369933544e-02
 -4.107890815911390e-01   3.140668551297732e-02
 -3.793823960781617e-01   3.262297143747650e-02
 -3.467594246406852e-01   3.362026987970046e-02
 -3.131391547609848e-01   3.414099744533683e-02
 -2.789981573156479e-01   3.466485175824463e-02
 -2.443333055574033e-01   3.541828946903403e-02
 -2.089150160883693e-01   3.561921822352610e-02
 -1.732957978648432e-01   3.491709555600697e-02
 -1.383787023088362e-01   3.462798709366910e-02
 -1.037507152151671e-01   3.551809156560637e-02
 -6.823262364956073e-02   3.537874553090459e-02
 -3.285387811865614e-02   3.288413665064893e-02
  3.025853199278838e-05   3.132595736327037e-02
  3.135621589526316e-02   3.297138135784494e-02
  6.432759725310810e-02   3.487267935803362e-02
  9.920027661114172e-02   3.596962127417502e-02
  1.351698978853168e-01   3.635922598161601e-02
  1.715291238669328e-01   3.636358275371521e-02
  2.078927066206480e-01   3.611144612842943e-02
  2.440041527490774e-01   3.555394095547915e-02
  2.795580937045565e-01   3.471650975278751e-02
  3.142746034573440e-01   3.374513101777621e-02
  3.480197344751203e-01   3.267305939804421e-02
  3.806927938731645e-01   3.145679725319350e-02
  4.121495911263580e-01   3.030378374214315e-02
  4.424533748685011e-01   2.951989815185718e-02
  4.719732730203583e-01   2.900766930109100e-02
  5.009809423214493e-01   2.853126612467893e-02
  5.295122084461282e-01   2.841611615615391e-02
  5.579283246022821e-01   2.910072896345206e-02
  5.870290535657342e-01   3.016106313941158e-02
  6.171901167051458e-01   3.106098828768011e-02
  6.482511049928259e-01   3.260438614212180e-02
  6.808554911349477e-01   3.574733068613756e-02
  7.166028218210853e-01   3.935829422343595e-02
  7.559611160445212e-01   4.199583758245540e-02
  7.979569536269766e-01   4.549492145665601e-02
  8.434518750836326e-01   5.211068056115997e-02
  8.955625556447926e-01   5.841376831222767e-02
  9.539763239570203e-01   1.266279569266637e-01
  1.080604280883684e+00   1.806931488165828e-01
  1.261297429700267e+00   2.221972865167674e-01
  1.483494716217034e+00   2.507264611756113e-01
  1.734221177392646e+00   2.657788226073545e-01
  2.000000000000000e+00   0.000000000000000e+00
Zone t="         1"
i=  65
 -2.000000000000000e+00   2.644660394137091e-01
 -1.735533960586291e+00   2.491947182127683e-01
 -1.486339242373523e+00   2.208408367976753e-01
 -1.265498405575847e+00   1.800574012491212e-01
 -1.085441004326726e+00   1.254093888930069e-01
 -9.600316154337193e-01   5.799970194886572e-02
 -9.020319134848536e-01   5.147860611624566e-02
 -8.505533073686079e-01   4.533181110711493e-02
 -8.052214962614930e-01   4.168623975884755e-02
 -7.635352565026454e-01   3.870725691758592e-02
 -7.248279995850595e-01   3.534148658423963e-02
 -6.894865130008199e-01   3.253617634883232e-02
 -6.569503366519875e-01   3.088453119135159e-02
 -6.260658054606360e-01   2.985708674491472e-02
 -5.962087187157212e-01   2.898880770661505e-02
 -5.672199110091062e-01   2.843886962600195e-02
 -5.387810413831042e-01   2.845575895860553e-02
 -5.103252824244987e-01   2.893669567914436e-02
 -4.813885867453543e-01   2.956929192775726e-02
 -4.518192948175971e-01   3.025195374618794e-02
 -4.215673410714091e-01   3.119368490764241e-02
 -3.903736561637667e-01   3.240172170036948e-02
 -3.579719344633973e-01   3.339225623445297e-02
 -3.245796782289443e-01   3.390945210559204e-02
 -2.906702261233523e-01   3.442975351768163e-02
 -2.562404726056706e-01   3.517808124007749e-02
 -2.210623913655931e-01   3.537764724939707e-02
 -1.856847441161961e-01   3.468028653980815e-02
 -1.510044575763879e-01   3.439313887776707e-02
 -1.166113186986209e-01   3.527720645580357e-02
 -8.133411224281728e-02   3.513880549806003e-02
 -4.619530674475725e-02   3.266111563080798e-02
 -1.353419111394927e-02   3.111350427487203e-02
  1.757931316092276e-02   4.608984283189188e-02
  6.366915599281464e-02   3.680363150120380e-02
  1.004727874940185e-01   3.785684891152952e-02
  1.383296364055480e-01   3.761616850024963e-02
  1.759458049057976e-01   3.699438131061394e-02
  2.129401862164115e-01   3.602850082881859e-02
  2.489686870452301e-01   3.531281270684261e-02
  2.842814997520727e-01   3.467155729781057e-02
  3.189530570498833e-01   3.375257954076227e-02
  3.527056365906456e-01   3.245146995283177e-02
  3.851571065434774e-01   3.125121166919065e-02
  4.164083182126680e-01   3.074146922701260e-02
  4.471497874396806e-01   2.979673674136552e-02
  4.769465241810461e-01   2.881093937722568e-02
  5.057574635582718e-01   2.860586330626591e-02
  5.343633268645377e-01   2.926755813097060e-02
  5.636308849955083e-01   2.951527360730755e-02
  5.931461586028158e-01   2.995651063241467e-02
  6.231026692352305e-01   3.129258012887548e-02
  6.543952493641060e-01   3.365419102209244e-02
  6.880494403861984e-01   3.610989952735977e-02
  7.241593399135582e-01   3.909136397316382e-02
  7.632507038867220e-01   4.209640441109053e-02
  8.053471082978125e-01   4.593343127069594e-02
  8.512805395685085e-01   5.175726068440623e-02
  9.030378002529147e-01   5.803286371133842e-02
  9.610706639642531e-01   1.257691436883407e-01
  1.086839807652594e+00   1.794676529724821e-01
  1.266307460625076e+00   2.206903000345970e-01
  1.486997760659673e+00   2.490259832484114e-01
  1.736023743908084e+00   2.639762560919157e-01
  2.000000000000000e+00   0.000000000000000e+00
Zone t="         2"
i=  65
 -2.000000000000000e+00   2.638508130332042e-01
 -1.736149186966796e+00   2.486150175852662e-01
 -1.487534169381530e+00   2.203270959502430e-01
 -1.267207073431287e+00   1.796385351174292e-01
 -1.087568538313857e+00   1.251176507133421e-01
 -9.624508876005152e-01   5.786477927041689e-02
 -9.045861083300983e-01   5.135885349654823e-02
 -8.532272548335501e-01   4.522635780824291e-02
 -8.080008970253072e-01   4.158926717133959e-02
 -7.664116298539676e-01   3.861721435317334e-02
 -7.277944155007943e-01   3.525927382865257e-02
 -6.925351416721417e-01   3.246048960086578e-02
 -6.600746520712759e-01   3.081268667400383e-02
 -6.292619653972721e-01   2.978763237686410e-02
 -5.994743330204080e-01   2.892137322055299e-02
 -5.705529597998550e-01   2.837271446372369e-02
 -5.421802453361313e-01   2.838956450658647e-02
 -5.137906808295448e-01   2.886938242156090e-02
 -4.849212984079839e-01   2.950050705826812e-02
 -4.554207913497158e-01   3.018158079700195e-02
 -4.252392105527139e-01   3.112112120441513e-02
 -3.941180893482987e-01   3.232634773494214e-02
 -3.617917416133566e-01   3.331457798344795e-02
 -3.284771636299086e-01   3.383057069917506e-02
 -2.946465929307336e-01   3.434966173141385e-02
 -2.602969311993197e-01   3.509624861518201e-02
 -2.252006825841377e-01   3.529535037306941e-02
 -1.899053322110683e-01   3.459961193728378e-02
 -1.553057202737845e-01   3.431313226832466e-02
 -1.209925880054599e-01   3.519514323541029e-02
 -8.579744477004958e-02   3.505706424052579e-02
 -5.074038052952379e-02   3.258513823594689e-02
 -1.815524229357690e-02   3.104112709626361e-02
  1.288588480268671e-02   4.598262611992077e-02
  5.886851092260748e-02   4.217473044454934e-02
  1.010432413671568e-01   3.776878465563249e-02
  1.388120260227893e-01   3.928869305890670e-02
  1.781007190816960e-01   3.749145756908734e-02
  2.155921766507833e-01   3.644616208205520e-02
  2.520383387328385e-01   3.529389378122805e-02
  2.873322325140666e-01   3.460838717071568e-02
  3.219406196847823e-01   3.367406306779819e-02
  3.556146827525805e-01   3.237598025778898e-02
  3.879906630103694e-01   3.160810209996678e-02
  4.195987651103362e-01   3.066995751544799e-02
  4.502687226257842e-01   2.981568481773189e-02
  4.800844074435161e-01   2.874391866717296e-02
  5.088283261106891e-01   2.871140742412304e-02
  5.375397335348121e-01   2.919947518636412e-02
  5.667392087211762e-01   2.954579843830818e-02
  5.962850071594844e-01   2.988682497406270e-02
  6.261718321335471e-01   3.126609673023284e-02
  6.574379288637799e-01   3.357590343084438e-02
  6.910138322946243e-01   3.611347904109941e-02
  7.271273113357237e-01   3.900042785853353e-02
  7.661277391942573e-01   4.199847765544373e-02
  8.081262168497010e-01   4.582657841974414e-02
  8.539527952694451e-01   5.163685982915578e-02
  9.055896550986009e-01   5.789786388851048e-02
  9.634875189871114e-01   1.254765686092462e-01
  1.088964087596358e+00   1.790501587752367e-01
  1.268014246371594e+00   2.201769093816117e-01
  1.488191155753206e+00   2.484466751499241e-01
  1.736637830903130e+00   2.633621690968699e-01
  2.000000000000000e+00   0.000000000000000e+00
Zone t="         3"
i=  65
 -2.000000000000000e+00   2.635500533968600e-01
 -1.736449946603140e+00   2.483316250724594e-01
 -1.488118321530681e+00   2.200759485428101e-01
 -1.268042372987871e+00   1.794337681740117e-01
 -1.088608604813859e+00   1.249750315545991e-01
 -9.636335732592597e-01   5.779882095492461e-02
 -9.058347523043351e-01   5.130031121765255e-02
 -8.545344410866825e-01   4.517480589690448e-02
 -8.093596351897781e-01   4.154186114149772e-02
 -7.678177740482803e-01   3.857319613518540e-02
 -7.292445779130949e-01   3.521908329187462e-02
 -6.940254946212203e-01   3.242348936889239e-02
 -6.616020052523279e-01   3.077756475531601e-02
 -6.308244404970119e-01   2.975367890682568e-02
 -6.010707615901862e-01   2.888840719024521e-02
 -5.721823543999410e-01   2.834037384378407e-02
 -5.438419805561570e-01   2.835720467945924e-02
 -5.154847758766977e-01   2.883647565502034e-02
 -4.866483002216774e-01   2.946688087937099e-02
 -4.571814193423064e-01   3.014717826928848e-02
 -4.270342410730179e-01   3.108564770443878e-02
 -3.959485933685791e-01   3.228950040987588e-02
 -3.636590929587033e-01   3.327660418507950e-02
 -3.303824887736238e-01   3.379200872611721e-02
 -2.965904800475065e-01   3.449479075986761e-02
 -2.620956892876389e-01   3.505624390913620e-02
 -2.270394453785027e-01   3.525511871301512e-02
 -1.917843266654876e-01   3.468570641226898e-02
 -1.570986202532186e-01   3.477186321954318e-02
 -1.223267570336755e-01   3.515502580042251e-02
 -8.717173123325295e-02   3.577704767347167e-02
 -5.139468355978127e-02   3.254799591830138e-02
 -1.884668764147990e-02   3.100574478073281e-02
  1.215905713925292e-02   4.593021214626103e-02
  5.808926928551395e-02   4.330083810050689e-02
  1.013901073860208e-01   3.783997139049022e-02
  1.392300787765111e-01   3.924390942938139e-02
  1.784739882058924e-01   3.915218658239550e-02
  2.176261747882879e-01   3.640461862379629e-02
  2.540307934120842e-01   3.525366378152783e-02
  2.892844571936121e-01   3.456893857281562e-02
  3.238533957664277e-01   3.363567949615010e-02
  3.574890752625778e-01   3.233907635713063e-02
  3.898281516197084e-01   3.157207349557145e-02
  4.214002251152799e-01   3.063499829223149e-02
  4.520352234075113e-01   2.978169937100994e-02
  4.818169227785213e-01   2.871115491545229e-02
  5.105280776939736e-01   2.867868073162727e-02
  5.392067584256008e-01   2.916619215054206e-02
  5.683729505761429e-01   2.951212063224074e-02
  5.978850712083836e-01   2.985275843542190e-02
  6.277378296438055e-01   3.123045797417412e-02
  6.589682876179797e-01   3.353763175033775e-02
  6.925059193683174e-01   3.607231480475204e-02
  7.285782341730694e-01   3.895597281948815e-02
  7.675342069925576e-01   4.195060517085991e-02
  8.094848121634175e-01   4.577434232322242e-02
  8.552591544866399e-01   5.157800065375562e-02
  9.068371551403955e-01   5.783186786020800e-02
  9.646690230006035e-01   1.253335403237560e-01
  1.090002563324360e+00   1.788460625158457e-01
  1.268848625840205e+00   2.199259331702734e-01
  1.488774559010479e+00   2.481634745288948e-01
  1.736938033539373e+00   2.630619664606266e-01
  2.000000000000000e+00   0.000000000000000e+00
Zone t="         4"
i=  65
 -2.000000000000000e+00   2.631208865345922e-01
 -1.736879113465408e+00   2.479272401058141e-01
 -1.488951873359594e+00   2.197175755040419e-01
 -1.269234297855552e+00   1.791415774144090e-01
 -1.090092720441143e+00   1.247715221422275e-01
 -9.653211982989153e-01   5.770470219735324e-02
 -9.076164961015620e-01   5.121677472170194e-02
 -8.563997213798601e-01   4.510124425711293e-02
 -8.112984771227472e-01   4.147421543834517e-02
 -7.698242616844020e-01   3.851038464649892e-02
 -7.313138770379031e-01   3.516173368614894e-02
 -6.961521433517541e-01   3.237069214632671e-02
 -6.637814512054274e-01   3.072744777876990e-02
 -6.330540034266575e-01   2.970522923991992e-02
 -6.033487741867376e-01   2.884136654356928e-02
 -5.745074076431683e-01   2.829422562206052e-02
 -5.462131820211078e-01   2.831102905017391e-02
 -5.179021529709339e-01   2.878951957436238e-02
 -4.891126333965715e-01   2.941889823827193e-02
 -4.596937351582996e-01   3.009808782266898e-02
 -4.295956473356306e-01   3.105318896325815e-02
 -3.985424583723725e-01   3.223692137675160e-02
 -3.663055369956209e-01   3.322241773874735e-02
 -3.330831192568735e-01   3.415538902277904e-02
 -2.989277302340945e-01   3.447885811952811e-02
 -2.644488721145664e-01   3.550890458967793e-02
 -2.289399675248884e-01   3.519771042671971e-02
 -1.937422570981687e-01   3.559994069126993e-02
 -1.581423164068988e-01   3.471524187306530e-02
 -1.234270745338335e-01   3.532565348262562e-02
 -8.810142105120788e-02   3.613708716126840e-02
 -5.196433388993949e-02   3.249499594757677e-02
 -1.946933794236272e-02   3.095525623273154e-02
  1.148591829036882e-02   4.585542039266088e-02
  5.734133868302971e-02   4.521565236941649e-02
  1.025569910524462e-01   3.944074162278399e-02
  1.419977326752302e-01   3.918000574204505e-02
  1.811777384172753e-01   3.908843225779035e-02
  2.202661706750656e-01   3.660774202421924e-02
  2.568739126992848e-01   3.519625786446368e-02
  2.920701705637485e-01   3.451264767159190e-02
  3.265828182353404e-01   3.358090832669747e-02
  3.601637265620379e-01   3.228641659386011e-02
  3.924501431558980e-01   3.152066273019083e-02
  4.239708058860888e-01   3.058511347285398e-02
  4.545559193589428e-01   2.973320407519875e-02
  4.842891234341415e-01   2.866440290878969e-02
  5.129535263429312e-01   2.863198160636749e-02
  5.415855079492987e-01   2.911869915505827e-02
  5.707042071043570e-01   2.946406432211379e-02
  6.001682714264708e-01   2.980414742606408e-02
  6.299724188525349e-01   3.117960350015370e-02
  6.611520223526886e-01   3.348302024316729e-02
  6.946350425958558e-01   3.601357578522946e-02
  7.306486183810853e-01   3.889253801204284e-02
  7.695411563931282e-01   4.188229386337250e-02
  8.114234502565006e-01   4.569980439016164e-02
  8.571232546466623e-01   5.149401196455150e-02
  9.086172666112138e-01   5.773769528860551e-02
  9.663549618998193e-01   1.251294471108322e-01
  1.091484409010652e+00   1.785548287841259e-01
  1.270039237794777e+00   2.195678044185792e-01
  1.489607042213357e+00   2.477593633808808e-01
  1.737366405594237e+00   2.626335944057627e-01
  2.000000000000000e+00   0.000000000000000e+00
Zone t="         5"
i=  65
 -2.000000000000000e+00   2.622464620425240e-01
 -1.737753537957476e+00   2.471033085534302e-01
 -1.490650229404046e+00   2.189873929341715e-01
 -1.271662836469874e+00   1.785462407772676e-01
 -1.093116595692607e+00   1.243568731322812e-01
 -9.687597225603256e-01   5.751293588447803e-02
 -9.112467866758476e-01   5.135282710128541e-02
 -8.598939595745622e-01   4.508247425099021e-02
 -8.148114853235720e-01   4.133638778942950e-02
 -7.734750975341425e-01   3.838240667587445e-02
 -7.350926908582680e-01   3.515788672595321e-02
 -6.999348041323148e-01   3.246650918038485e-02
 -6.674682949519299e-01   3.062533478820251e-02
 -6.368429601637274e-01   2.960651338112463e-02
 -6.072364467826028e-01   2.874552155367438e-02
 -5.784909252289284e-01   2.822670892400592e-02
 -5.502642163049225e-01   2.823269367486392e-02
 -5.220315226300586e-01   2.869384688714027e-02
 -4.933376757429183e-01   2.932113394130731e-02
 -4.640165418016110e-01   3.015207175437740e-02
 -4.338644700472336e-01   3.143628706568813e-02
 -4.024281829815455e-01   3.212979196305665e-02
 -3.702983910184888e-01   3.311201323183222e-02
 -3.371863777866566e-01   3.456237933815309e-02
 -3.026239984485035e-01   3.613158808681427e-02
 -2.664924103616893e-01   3.539090141688739e-02
 -2.311015089448019e-01   3.511884143929700e-02
 -1.959826675055049e-01   3.563518625946993e-02
 -1.603474812460349e-01   3.459987627407102e-02
 -1.257476049719639e-01   3.570633090912678e-02
 -9.004127406283713e-02   3.723806447589440e-02
 -5.280320958694273e-02   3.238700887645141e-02
 -2.041620071049133e-02   3.085238616790997e-02
  1.043618545741865e-02   4.570303271573928e-02
  5.613921817315792e-02   4.847079904969598e-02
  1.046100172228539e-01   4.235536741439139e-02
  1.469653846372453e-01   3.904980242428402e-02
  1.860151870615293e-01   3.895853326555365e-02
  2.249737203270830e-01   3.769302811320796e-02
  2.626667484402909e-01   3.507929370836482e-02
  2.977460421486557e-01   3.439795535250079e-02
  3.321439975011565e-01   3.346931245050155e-02
  3.656133099516581e-01   3.217912269305279e-02
  3.977924326447109e-01   3.141591365388208e-02
  4.292083462985930e-01   3.048347350089653e-02
  4.596918197994895e-01   2.963439524782729e-02
  4.893262150473168e-01   2.856914602091398e-02
  5.178953610682308e-01   2.853683246398109e-02
  5.464321935322118e-01   2.902193250762175e-02
  5.754541260398336e-01   2.936614992501530e-02
  6.048202759648489e-01   2.970510283314753e-02
  6.345253787979964e-01   3.107598786361587e-02
  6.656013666616123e-01   3.337174967776002e-02
  6.989731163393723e-01   3.589389544215915e-02
  7.348670117815315e-01   3.876329003379309e-02
  7.736303018153246e-01   4.174311005025977e-02
  8.153734118655843e-01   4.554793387082046e-02
  8.609213457364048e-01   5.132288559540776e-02
  9.122442313318125e-01   5.754581933002090e-02
  9.697900506618334e-01   1.247136086113209e-01
  1.094503659273154e+00   1.779614420846336e-01
  1.272465101357788e+00   2.188381195819162e-01
  1.491303220939704e+00   2.469359897320531e-01
  1.738239210671757e+00   2.617607893282428e-01
  2.000000000000000e+00   0.000000000000000e+00
Zone t="         6"
i=  65
 -2.000000000000000e+00   2.619475311890573e-01
 -1.738052468810943e+00   2.468216392219056e-01
 -1.491230829589037e+00   2.187377726401625e-01
 -1.272493056948875e+00   1.783427189287210e-01
 -1.094150338020154e+00   1.242151211759287e-01
 -9.699352168442249e-01   5.744737863157201e-02
 -9.124878382126529e-01   5.129429169181587e-02
 -8.611935465208370e-01   4.503108635101050e-02
 -8.161624601698265e-01   4.128927001414429e-02
 -7.748731901556822e-01   3.833865611269816e-02
 -7.365345340429841e-01   3.511781175926898e-02
 -7.014167222837151e-01   3.242950208675666e-02
 -6.689872201969584e-01   3.059042642996535e-02
 -6.383967937669931e-01   2.957276636673012e-02
 -6.088240274002630e-01   2.871275597484024e-02
 -5.801112714254227e-01   2.819453473424904e-02
 -5.519167366911737e-01   2.820051266315515e-02
 -5.237162240280185e-01   2.866114021171606e-02
 -4.950550838163025e-01   2.928771222794513e-02
 -4.657673715883574e-01   3.014825265786103e-02
 -4.356191189304963e-01   3.140045431144900e-02
 -4.042186646190473e-01   3.209316868985412e-02
 -3.721254959291932e-01   3.307427033490196e-02
 -3.390512255942912e-01   3.515558899025262e-02
 -3.038956366040386e-01   3.609040320815571e-02
 -2.678052333958829e-01   3.562296406329790e-02
 -2.321822693325850e-01   3.558547662381850e-02
 -1.965967927087665e-01   3.559456722405097e-02
 -1.610022254847155e-01   3.509176283174254e-02
 -1.259104626529730e-01   3.566563077666762e-02
 -9.024483187630539e-02   3.719561833639784e-02
 -5.304921353990755e-02   3.235009240438569e-02
 -2.069912113552186e-02   3.081721899618506e-02
  1.011809786066320e-02   4.565093744767057e-02
  5.576903530833377e-02   4.943590865075520e-02
  1.052049439590890e-01   4.322684776001240e-02
  1.484317917191014e-01   3.900529110368900e-02
  1.874370828227904e-01   3.891412598171573e-02
  2.263512088045061e-01   3.813253159044461e-02
  2.644837403949507e-01   3.520265584080018e-02
  2.996863962357509e-01   3.435874662362448e-02
  3.340451428593754e-01   3.343116227193621e-02
  3.674763051313116e-01   3.214244318826898e-02
  3.996187483195806e-01   3.138010412308201e-02
  4.309988524426626e-01   3.044872684885391e-02
  4.614475792915165e-01   2.960061645118572e-02
  4.910481957427022e-01   2.853658149070038e-02
  5.195847772334026e-01   2.850430476765309e-02
  5.480890820010557e-01   2.898885185083788e-02
  5.770779338518935e-01   2.933267689840546e-02
  6.064106107502990e-01   2.967124343767058e-02
  6.360818541879696e-01   3.104056581066139e-02
  6.671224199986310e-01   3.333371070997671e-02
  7.004561307086077e-01   3.585298150685490e-02
  7.363091122154626e-01   3.871910530566880e-02
  7.750282175211314e-01   4.169552865653192e-02
  8.167237461776633e-01   4.549601539829939e-02
  8.622197615759627e-01   5.126438431594627e-02
  9.134841458919090e-01   5.748022459362034e-02
  9.709643704855293e-01   1.245714500159352e-01
  1.095535820501465e+00   1.777585868419873e-01
  1.273294407343452e+00   2.185886694430377e-01
  1.491883076786490e+00   2.466545111254976e-01
  1.738537587911987e+00   2.614624120880129e-01
  2.000000000000000e+00   0.000000000000000e+00
Zone t="         7"
i=  65
 -2.000000000000000e+00   2.613381636271803e-01
 -1.738661836372820e+00   2.462474591002579e-01
 -1.492414377272562e+00   2.182289241616902e-01
 -1.274185453110872e+00   1.779278416713221e-01
 -1.096257611439550e+00   1.239261612273931e-01
 -9.723314502121564e-01   5.731374082569529e-02
 -9.150177093864611e-01   5.125833352180742e-02
 -8.637593758646537e-01   4.492633262968371e-02
 -8.188330432349700e-01   4.119322089939304e-02
 -7.776398223355769e-01   3.824947102623288e-02
 -7.393903513093441e-01   3.503611933957740e-02
 -7.043542319697667e-01   3.235406349567405e-02
 -6.720001684740926e-01   3.051926609003608e-02
 -6.414809023840565e-01   2.950397341463507e-02
 -6.119769289694215e-01   2.864596366934202e-02
 -5.833309653000794e-01   2.812894796948606e-02
 -5.552020173305934e-01   2.813491199190377e-02
 -5.270671053386896e-01   2.859446798023280e-02
 -4.984726373584568e-01   2.921958239875955e-02
 -4.692530549596973e-01   3.057494111866477e-02
 -4.386781138410325e-01   3.132740959949598e-02
 -4.073507042415365e-01   3.201851251288168e-02
 -3.753321917286548e-01   3.362309377709927e-02
 -3.417090979515556e-01   3.507380868919530e-02
 -3.066352892623603e-01   3.600644824397681e-02
 -2.706288410183835e-01   3.609255838303560e-02
 -2.345362826353479e-01   3.594528306855038e-02
 -1.985909995667975e-01   3.551176572567028e-02
 -1.630792338411272e-01   3.562731046288625e-02
 -1.274519233782410e-01   3.688729129127188e-02
 -9.056463208696908e-02   3.710909230458614e-02
 -5.345553978238293e-02   3.227483854445523e-02
 -2.118070123792770e-02   3.074553106754308e-02
  9.564829829615373e-03   4.554474176355061e-02
  5.510957159316599e-02   5.093656113306755e-02
  1.060461327262335e-01   4.451671290195125e-02
  1.505628456281848e-01   3.891455522081744e-02
  1.894774008490022e-01   3.882360217673642e-02
  2.283010030257386e-01   3.896448005171571e-02
  2.672654830774544e-01   3.632930335700446e-02
  3.035947864344588e-01   3.427882002106020e-02
  3.378736064555190e-01   3.335339351361633e-02
  3.712269999691353e-01   3.211467462957629e-02
  4.033416745987116e-01   3.130710675187631e-02
  4.346487813505879e-01   3.037789614538766e-02
  4.650266774959756e-01   2.953175871129710e-02
  4.945584362072727e-01   2.847019902080950e-02
  5.230286352280822e-01   2.843799738326847e-02
  5.514666326113507e-01   2.892141726208342e-02
  5.803880498734341e-01   2.926444246767579e-02
  6.096524923411099e-01   2.960222139786006e-02
  6.392547137389699e-01   3.096835830917677e-02
  6.702230720481467e-01   3.325616865372627e-02
  7.034792407018730e-01   3.576957885800070e-02
  7.392488195598737e-01   3.862903517829031e-02
  7.778778547381640e-01   4.159853446021378e-02
  8.194763891983777e-01   4.539018011013984e-02
  8.648665693085176e-01   5.114513004152477e-02
  9.160116993500423e-01   5.734651037801231e-02
  9.733582097280547e-01   1.242816611377866e-01
  1.097639870865841e+00   1.773450684540658e-01
  1.274984939319907e+00   2.180801678240996e-01
  1.493065107144007e+00   2.460807197947990e-01
  1.739145826938806e+00   2.608541730611944e-01
  2.000000000000000e+00   0.000000000000000e+00
Zone t="         8"
i=  65
 -2.000000000000000e+00   2.607302136401957e-01
 -1.739269786359804e+00   2.456746146967772e-01
 -1.493595171663027e+00   2.177212594200491e-01
 -1.275873912242978e+00   1.775139295450210e-01
 -1.098359982697957e+00   1.236378734878699e-01
 -9.747221092100872e-01   5.718041390213291e-02
 -9.175416953079543e-01   5.140998687709819e-02
 -8.661317084308561e-01   4.492664672283298e-02
 -8.212050617080231e-01   4.109739522419287e-02
 -7.801076664838302e-01   3.816049341149208e-02
 -7.419471730723382e-01   3.505079170874992e-02
 -7.068963813635882e-01   3.234449814198914e-02
 -6.745518832215991e-01   3.052197966967041e-02
 -6.440299035519287e-01   2.943534049593988e-02
 -6.145945630559888e-01   2.864406294015220e-02
 -5.859505001158366e-01   2.816734280081967e-02
 -5.577831573150169e-01   2.830895701254999e-02
 -5.294742003024670e-01   2.852795084870397e-02
 -5.009462494537630e-01   2.981538153819052e-02
 -4.711308679155725e-01   3.050381680229519e-02
 -4.406270511132773e-01   3.138552934301564e-02
 -4.092415217702616e-01   3.249302399168241e-02
 -3.767484977785792e-01   3.354487852753307e-02
 -3.432036192510461e-01   3.499221863407054e-02
 -3.082114006169756e-01   3.627597413496875e-02
 -2.719354264820069e-01   3.629105439702274e-02
 -2.356443720849841e-01   3.586166569809868e-02
 -1.997827063868854e-01   3.542915684884296e-02
 -1.643535495380425e-01   3.601288240289813e-02
 -1.283406671351444e-01   3.755220080198507e-02
 -9.078846633315929e-02   3.719129906348806e-02
 -5.359716726967123e-02   3.219975974796607e-02
 -2.139740752170516e-02   3.067400990689695e-02
  9.276602385191790e-03   4.543879312299781e-02